LAMMPS data file via write_data, version 2 Aug 2023, timestep = 0, units = metal

52992 atoms
3 atom types

0 99.267 xlo xhi
0 99.267 ylo yhi
0 96.6335 zlo zhi

Masses

1 92.90638
2 118.71
3 92.90638

Atoms # atomic

1 1 1.3025 0 2.605 0 0 0
2 1 3.9075 0 2.605 0 0 0
3 1 0 2.605 1.3025 0 0 0
4 1 0 2.605 3.9075 0 0 0
5 1 2.605 3.9075 0 0 0 0
6 1 2.605 1.3025 0 0 0 0
7 2 0 0 0 0 0 0
8 2 2.605 2.605 2.605 0 0 0
9 1 6.5125 0 2.605 0 0 0
10 1 9.1175 0 2.605 0 0 0
11 1 5.21 2.605 1.3025 0 0 0
12 1 5.21 2.605 3.9075 0 0 0
13 1 7.815 3.9075 0 0 0 0
14 1 7.815 1.3025 0 0 0 0
15 2 5.21 0 0 0 0 0
16 2 7.815 2.605 2.605 0 0 0
17 1 11.7225 0 2.605 0 0 0
18 1 14.3275 0 2.605 0 0 0
19 1 10.42 2.605 1.3025 0 0 0
20 1 10.42 2.605 3.9075 0 0 0
21 1 13.025 3.9075 0 0 0 0
22 1 13.025 1.3025 0 0 0 0
23 2 10.42 0 0 0 0 0
24 2 13.025 2.605 2.605 0 0 0
25 1 16.9325 0 2.605 0 0 0
26 1 19.5375 0 2.605 0 0 0
27 1 15.63 2.605 1.3025 0 0 0
28 1 15.63 2.605 3.9075 0 0 0
29 1 18.235 3.9075 0 0 0 0
30 1 18.235 1.3025 0 0 0 0
31 2 15.63 0 0 0 0 0
32 2 18.235 2.605 2.605 0 0 0
33 1 22.1425 0 2.605 0 0 0
34 1 24.7475 0 2.605 0 0 0
35 1 20.84 2.605 1.3025 0 0 0
36 1 20.84 2.605 3.9075 0 0 0
37 1 23.445 3.9075 0 0 0 0
38 1 23.445 1.3025 0 0 0 0
39 2 20.84 0 0 0 0 0
40 2 23.445 2.605 2.605 0 0 0
41 1 27.3525 0 2.605 0 0 0
42 1 29.9575 0 2.605 0 0 0
43 1 26.05 2.605 1.3025 0 0 0
44 1 26.05 2.605 3.9075 0 0 0
45 1 28.655 3.9075 0 0 0 0
46 1 28.655 1.3025 0 0 0 0
47 2 26.05 0 0 0 0 0
48 2 28.655 2.605 2.605 0 0 0
49 1 32.5625 0 2.605 0 0 0
50 1 35.1675 0 2.605 0 0 0
51 1 31.26 2.605 1.3025 0 0 0
52 1 31.26 2.605 3.9075 0 0 0
53 1 33.865 3.9075 0 0 0 0
54 1 33.865 1.3025 0 0 0 0
55 2 31.26 0 0 0 0 0
56 2 33.865 2.605 2.605 0 0 0
57 1 37.7725 0 2.605 0 0 0
58 1 40.3775 0 2.605 0 0 0
59 1 36.47 2.605 1.3025 0 0 0
60 1 36.47 2.605 3.9075 0 0 0
61 1 39.075 3.9075 0 0 0 0
62 1 39.075 1.3025 0 0 0 0
63 2 36.47 0 0 0 0 0
64 2 39.075 2.605 2.605 0 0 0
65 1 42.9825 0 2.605 0 0 0
66 1 45.5875 0 2.605 0 0 0
67 1 41.68 2.605 1.3025 0 0 0
68 1 41.68 2.605 3.9075 0 0 0
69 1 44.285 3.9075 0 0 0 0
70 1 44.285 1.3025 0 0 0 0
71 2 41.68 0 0 0 0 0
72 2 44.285 2.605 2.605 0 0 0
73 1 48.1925 0 2.605 0 0 0
74 1 50.7975 0 2.605 0 0 0
75 1 46.89 2.605 1.3025 0 0 0
76 1 46.89 2.605 3.9075 0 0 0
77 1 49.495 3.9075 0 0 0 0
78 1 49.495 1.3025 0 0 0 0
79 2 46.89 0 0 0 0 0
80 2 49.495 2.605 2.605 0 0 0
81 1 53.4025 0 2.605 0 0 0
82 1 56.0075 0 2.605 0 0 0
83 1 52.1 2.605 1.3025 0 0 0
84 1 52.1 2.605 3.9075 0 0 0
85 1 54.705 3.9075 0 0 0 0
86 1 54.705 1.3025 0 0 0 0
87 2 52.1 0 0 0 0 0
88 2 54.705 2.605 2.605 0 0 0
89 1 58.6125 0 2.605 0 0 0
90 1 61.2175 0 2.605 0 0 0
91 1 57.31 2.605 1.3025 0 0 0
92 1 57.31 2.605 3.9075 0 0 0
93 1 59.915 3.9075 0 0 0 0
94 1 59.915 1.3025 0 0 0 0
95 2 57.31 0 0 0 0 0
96 2 59.915 2.605 2.605 0 0 0
97 1 63.8225 0 2.605 0 0 0
98 1 66.4275 0 2.605 0 0 0
99 1 62.52 2.605 1.3025 0 0 0
100 1 62.52 2.605 3.9075 0 0 0
101 1 65.125 3.9075 0 0 0 0
102 1 65.125 1.3025 0 0 0 0
103 2 62.52 0 0 0 0 0
104 2 65.125 2.605 2.605 0 0 0
105 1 69.0325 0 2.605 0 0 0
106 1 71.6375 0 2.605 0 0 0
107 1 67.73 2.605 1.3025 0 0 0
108 1 67.73 2.605 3.9075 0 0 0
109 1 70.335 3.9075 0 0 0 0
110 1 70.335 1.3025 0 0 0 0
111 2 67.73 0 0 0 0 0
112 2 70.335 2.605 2.605 0 0 0
113 1 74.2425 0 2.605 0 0 0
114 1 76.8475 0 2.605 0 0 0
115 1 72.94 2.605 1.3025 0 0 0
116 1 72.94 2.605 3.9075 0 0 0
117 1 75.545 3.9075 0 0 0 0
118 1 75.545 1.3025 0 0 0 0
119 2 72.94 0 0 0 0 0
120 2 75.545 2.605 2.605 0 0 0
121 1 79.4525 0 2.605 0 0 0
122 1 82.0575 0 2.605 0 0 0
123 1 78.15 2.605 1.3025 0 0 0
124 1 78.15 2.605 3.9075 0 0 0
125 1 80.755 3.9075 0 0 0 0
126 1 80.755 1.3025 0 0 0 0
127 2 78.15 0 0 0 0 0
128 2 80.755 2.605 2.605 0 0 0
129 1 84.6625 0 2.605 0 0 0
130 1 87.2675 0 2.605 0 0 0
131 1 83.36 2.605 1.3025 0 0 0
132 1 83.36 2.605 3.9075 0 0 0
133 1 85.965 3.9075 0 0 0 0
134 1 85.965 1.3025 0 0 0 0
135 2 83.36 0 0 0 0 0
136 2 85.965 2.605 2.605 0 0 0
137 1 89.8725 0 2.605 0 0 0
138 1 92.4775 0 2.605 0 0 0
139 1 88.57 2.605 1.3025 0 0 0
140 1 88.57 2.605 3.9075 0 0 0
141 1 91.175 3.9075 0 0 0 0
142 1 91.175 1.3025 0 0 0 0
143 2 88.57 0 0 0 0 0
144 2 91.175 2.605 2.605 0 0 0
145 1 95.0825 0 2.605 0 0 0
146 1 97.6875 0 2.605 0 0 0
147 1 93.78 2.605 1.3025 0 0 0
148 1 93.78 2.605 3.9075 0 0 0
149 1 96.385 3.9075 0 0 0 0
150 1 96.385 1.3025 0 0 0 0
151 2 93.78 0 0 0 0 0
152 2 96.385 2.605 2.605 0 0 0
153 1 1.3025 5.21 2.605 0 0 0
154 1 3.9075 5.21 2.605 0 0 0
155 1 0 7.815 1.3025 0 0 0
156 1 0 7.815 3.9075 0 0 0
157 1 2.605 9.1175 0 0 0 0
158 1 2.605 6.5125 0 0 0 0
159 2 0 5.21 0 0 0 0
160 2 2.605 7.815 2.605 0 0 0
161 1 6.5125 5.21 2.605 0 0 0
162 1 9.1175 5.21 2.605 0 0 0
163 1 5.21 7.815 1.3025 0 0 0
164 1 5.21 7.815 3.9075 0 0 0
165 1 7.815 9.1175 0 0 0 0
166 1 7.815 6.5125 0 0 0 0
167 2 5.21 5.21 0 0 0 0
168 2 7.815 7.815 2.605 0 0 0
169 1 11.7225 5.21 2.605 0 0 0
170 1 14.3275 5.21 2.605 0 0 0
171 1 10.42 7.815 1.3025 0 0 0
172 1 10.42 7.815 3.9075 0 0 0
173 1 13.025 9.1175 0 0 0 0
174 1 13.025 6.5125 0 0 0 0
175 2 10.42 5.21 0 0 0 0
176 2 13.025 7.815 2.605 0 0 0
177 1 16.9325 5.21 2.605 0 0 0
178 1 19.5375 5.21 2.605 0 0 0
179 1 15.63 7.815 1.3025 0 0 0
180 1 15.63 7.815 3.9075 0 0 0
181 1 18.235 9.1175 0 0 0 0
182 1 18.235 6.5125 0 0 0 0
183 2 15.63 5.21 0 0 0 0
184 2 18.235 7.815 2.605 0 0 0
185 1 22.1425 5.21 2.605 0 0 0
186 1 24.7475 5.21 2.605 0 0 0
187 1 20.84 7.815 1.3025 0 0 0
188 1 20.84 7.815 3.9075 0 0 0
189 1 23.445 9.1175 0 0 0 0
190 1 23.445 6.5125 0 0 0 0
191 2 20.84 5.21 0 0 0 0
192 2 23.445 7.815 2.605 0 0 0
193 1 27.3525 5.21 2.605 0 0 0
194 1 29.9575 5.21 2.605 0 0 0
195 1 26.05 7.815 1.3025 0 0 0
196 1 26.05 7.815 3.9075 0 0 0
197 1 28.655 9.1175 0 0 0 0
198 1 28.655 6.5125 0 0 0 0
199 2 26.05 5.21 0 0 0 0
200 2 28.655 7.815 2.605 0 0 0
201 1 32.5625 5.21 2.605 0 0 0
202 1 35.1675 5.21 2.605 0 0 0
203 1 31.26 7.815 1.3025 0 0 0
204 1 31.26 7.815 3.9075 0 0 0
205 1 33.865 9.1175 0 0 0 0
206 1 33.865 6.5125 0 0 0 0
207 2 31.26 5.21 0 0 0 0
208 2 33.865 7.815 2.605 0 0 0
209 1 37.7725 5.21 2.605 0 0 0
210 1 40.3775 5.21 2.605 0 0 0
211 1 36.47 7.815 1.3025 0 0 0
212 1 36.47 7.815 3.9075 0 0 0
213 1 39.075 9.1175 0 0 0 0
214 1 39.075 6.5125 0 0 0 0
215 2 36.47 5.21 0 0 0 0
216 2 39.075 7.815 2.605 0 0 0
217 1 42.9825 5.21 2.605 0 0 0
218 1 45.5875 5.21 2.605 0 0 0
219 1 41.68 7.815 1.3025 0 0 0
220 1 41.68 7.815 3.9075 0 0 0
221 1 44.285 9.1175 0 0 0 0
222 1 44.285 6.5125 0 0 0 0
223 2 41.68 5.21 0 0 0 0
224 2 44.285 7.815 2.605 0 0 0
225 1 48.1925 5.21 2.605 0 0 0
226 1 50.7975 5.21 2.605 0 0 0
227 1 46.89 7.815 1.3025 0 0 0
228 1 46.89 7.815 3.9075 0 0 0
229 1 49.495 9.1175 0 0 0 0
230 1 49.495 6.5125 0 0 0 0
231 2 46.89 5.21 0 0 0 0
232 2 49.495 7.815 2.605 0 0 0
233 1 53.4025 5.21 2.605 0 0 0
234 1 56.0075 5.21 2.605 0 0 0
235 1 52.1 7.815 1.3025 0 0 0
236 1 52.1 7.815 3.9075 0 0 0
237 1 54.705 9.1175 0 0 0 0
238 1 54.705 6.5125 0 0 0 0
239 2 52.1 5.21 0 0 0 0
240 2 54.705 7.815 2.605 0 0 0
241 1 58.6125 5.21 2.605 0 0 0
242 1 61.2175 5.21 2.605 0 0 0
243 1 57.31 7.815 1.3025 0 0 0
244 1 57.31 7.815 3.9075 0 0 0
245 1 59.915 9.1175 0 0 0 0
246 1 59.915 6.5125 0 0 0 0
247 2 57.31 5.21 0 0 0 0
248 2 59.915 7.815 2.605 0 0 0
249 1 63.8225 5.21 2.605 0 0 0
250 1 66.4275 5.21 2.605 0 0 0
251 1 62.52 7.815 1.3025 0 0 0
252 1 62.52 7.815 3.9075 0 0 0
253 1 65.125 9.1175 0 0 0 0
254 1 65.125 6.5125 0 0 0 0
255 2 62.52 5.21 0 0 0 0
256 2 65.125 7.815 2.605 0 0 0
257 1 69.0325 5.21 2.605 0 0 0
258 1 71.6375 5.21 2.605 0 0 0
259 1 67.73 7.815 1.3025 0 0 0
260 1 67.73 7.815 3.9075 0 0 0
261 1 70.335 9.1175 0 0 0 0
262 1 70.335 6.5125 0 0 0 0
263 2 67.73 5.21 0 0 0 0
264 2 70.335 7.815 2.605 0 0 0
265 1 74.2425 5.21 2.605 0 0 0
266 1 76.8475 5.21 2.605 0 0 0
267 1 72.94 7.815 1.3025 0 0 0
268 1 72.94 7.815 3.9075 0 0 0
269 1 75.545 9.1175 0 0 0 0
270 1 75.545 6.5125 0 0 0 0
271 2 72.94 5.21 0 0 0 0
272 2 75.545 7.815 2.605 0 0 0
273 1 79.4525 5.21 2.605 0 0 0
274 1 82.0575 5.21 2.605 0 0 0
275 1 78.15 7.815 1.3025 0 0 0
276 1 78.15 7.815 3.9075 0 0 0
277 1 80.755 9.1175 0 0 0 0
278 1 80.755 6.5125 0 0 0 0
279 2 78.15 5.21 0 0 0 0
280 2 80.755 7.815 2.605 0 0 0
281 1 84.6625 5.21 2.605 0 0 0
282 1 87.2675 5.21 2.605 0 0 0
283 1 83.36 7.815 1.3025 0 0 0
284 1 83.36 7.815 3.9075 0 0 0
285 1 85.965 9.1175 0 0 0 0
286 1 85.965 6.5125 0 0 0 0
287 2 83.36 5.21 0 0 0 0
288 2 85.965 7.815 2.605 0 0 0
289 1 89.8725 5.21 2.605 0 0 0
290 1 92.4775 5.21 2.605 0 0 0
291 1 88.57 7.815 1.3025 0 0 0
292 1 88.57 7.815 3.9075 0 0 0
293 1 91.175 9.1175 0 0 0 0
294 1 91.175 6.5125 0 0 0 0
295 2 88.57 5.21 0 0 0 0
296 2 91.175 7.815 2.605 0 0 0
297 1 95.0825 5.21 2.605 0 0 0
298 1 97.6875 5.21 2.605 0 0 0
299 1 93.78 7.815 1.3025 0 0 0
300 1 93.78 7.815 3.9075 0 0 0
301 1 96.385 9.1175 0 0 0 0
302 1 96.385 6.5125 0 0 0 0
303 2 93.78 5.21 0 0 0 0
304 2 96.385 7.815 2.605 0 0 0
305 1 1.3025 10.42 2.605 0 0 0
306 1 3.9075 10.42 2.605 0 0 0
307 1 0 13.025 1.3025 0 0 0
308 1 0 13.025 3.9075 0 0 0
309 1 2.605 14.3275 0 0 0 0
310 1 2.605 11.7225 0 0 0 0
311 2 0 10.42 0 0 0 0
312 2 2.605 13.025 2.605 0 0 0
313 1 6.5125 10.42 2.605 0 0 0
314 1 9.1175 10.42 2.605 0 0 0
315 1 5.21 13.025 1.3025 0 0 0
316 1 5.21 13.025 3.9075 0 0 0
317 1 7.815 14.3275 0 0 0 0
318 1 7.815 11.7225 0 0 0 0
319 2 5.21 10.42 0 0 0 0
320 2 7.815 13.025 2.605 0 0 0
321 1 11.7225 10.42 2.605 0 0 0
322 1 14.3275 10.42 2.605 0 0 0
323 1 10.42 13.025 1.3025 0 0 0
324 1 10.42 13.025 3.9075 0 0 0
325 1 13.025 14.3275 0 0 0 0
326 1 13.025 11.7225 0 0 0 0
327 2 10.42 10.42 0 0 0 0
328 2 13.025 13.025 2.605 0 0 0
329 1 16.9325 10.42 2.605 0 0 0
330 1 19.5375 10.42 2.605 0 0 0
331 1 15.63 13.025 1.3025 0 0 0
332 1 15.63 13.025 3.9075 0 0 0
333 1 18.235 14.3275 0 0 0 0
334 1 18.235 11.7225 0 0 0 0
335 2 15.63 10.42 0 0 0 0
336 2 18.235 13.025 2.605 0 0 0
337 1 22.1425 10.42 2.605 0 0 0
338 1 24.7475 10.42 2.605 0 0 0
339 1 20.84 13.025 1.3025 0 0 0
340 1 20.84 13.025 3.9075 0 0 0
341 1 23.445 14.3275 0 0 0 0
342 1 23.445 11.7225 0 0 0 0
343 2 20.84 10.42 0 0 0 0
344 2 23.445 13.025 2.605 0 0 0
345 1 27.3525 10.42 2.605 0 0 0
346 1 29.9575 10.42 2.605 0 0 0
347 1 26.05 13.025 1.3025 0 0 0
348 1 26.05 13.025 3.9075 0 0 0
349 1 28.655 14.3275 0 0 0 0
350 1 28.655 11.7225 0 0 0 0
351 2 26.05 10.42 0 0 0 0
352 2 28.655 13.025 2.605 0 0 0
353 1 32.5625 10.42 2.605 0 0 0
354 1 35.1675 10.42 2.605 0 0 0
355 1 31.26 13.025 1.3025 0 0 0
356 1 31.26 13.025 3.9075 0 0 0
357 1 33.865 14.3275 0 0 0 0
358 1 33.865 11.7225 0 0 0 0
359 2 31.26 10.42 0 0 0 0
360 2 33.865 13.025 2.605 0 0 0
361 1 37.7725 10.42 2.605 0 0 0
362 1 40.3775 10.42 2.605 0 0 0
363 1 36.47 13.025 1.3025 0 0 0
364 1 36.47 13.025 3.9075 0 0 0
365 1 39.075 14.3275 0 0 0 0
366 1 39.075 11.7225 0 0 0 0
367 2 36.47 10.42 0 0 0 0
368 2 39.075 13.025 2.605 0 0 0
369 1 42.9825 10.42 2.605 0 0 0
370 1 45.5875 10.42 2.605 0 0 0
371 1 41.68 13.025 1.3025 0 0 0
372 1 41.68 13.025 3.9075 0 0 0
373 1 44.285 14.3275 0 0 0 0
374 1 44.285 11.7225 0 0 0 0
375 2 41.68 10.42 0 0 0 0
376 2 44.285 13.025 2.605 0 0 0
377 1 48.1925 10.42 2.605 0 0 0
378 1 50.7975 10.42 2.605 0 0 0
379 1 46.89 13.025 1.3025 0 0 0
380 1 46.89 13.025 3.9075 0 0 0
381 1 49.495 14.3275 0 0 0 0
382 1 49.495 11.7225 0 0 0 0
383 2 46.89 10.42 0 0 0 0
384 2 49.495 13.025 2.605 0 0 0
385 1 53.4025 10.42 2.605 0 0 0
386 1 56.0075 10.42 2.605 0 0 0
387 1 52.1 13.025 1.3025 0 0 0
388 1 52.1 13.025 3.9075 0 0 0
389 1 54.705 14.3275 0 0 0 0
390 1 54.705 11.7225 0 0 0 0
391 2 52.1 10.42 0 0 0 0
392 2 54.705 13.025 2.605 0 0 0
393 1 58.6125 10.42 2.605 0 0 0
394 1 61.2175 10.42 2.605 0 0 0
395 1 57.31 13.025 1.3025 0 0 0
396 1 57.31 13.025 3.9075 0 0 0
397 1 59.915 14.3275 0 0 0 0
398 1 59.915 11.7225 0 0 0 0
399 2 57.31 10.42 0 0 0 0
400 2 59.915 13.025 2.605 0 0 0
401 1 63.8225 10.42 2.605 0 0 0
402 1 66.4275 10.42 2.605 0 0 0
403 1 62.52 13.025 1.3025 0 0 0
404 1 62.52 13.025 3.9075 0 0 0
405 1 65.125 14.3275 0 0 0 0
406 1 65.125 11.7225 0 0 0 0
407 2 62.52 10.42 0 0 0 0
408 2 65.125 13.025 2.605 0 0 0
409 1 69.0325 10.42 2.605 0 0 0
410 1 71.6375 10.42 2.605 0 0 0
411 1 67.73 13.025 1.3025 0 0 0
412 1 67.73 13.025 3.9075 0 0 0
413 1 70.335 14.3275 0 0 0 0
414 1 70.335 11.7225 0 0 0 0
415 2 67.73 10.42 0 0 0 0
416 2 70.335 13.025 2.605 0 0 0
417 1 74.2425 10.42 2.605 0 0 0
418 1 76.8475 10.42 2.605 0 0 0
419 1 72.94 13.025 1.3025 0 0 0
420 1 72.94 13.025 3.9075 0 0 0
421 1 75.545 14.3275 0 0 0 0
422 1 75.545 11.7225 0 0 0 0
423 2 72.94 10.42 0 0 0 0
424 2 75.545 13.025 2.605 0 0 0
425 1 79.4525 10.42 2.605 0 0 0
426 1 82.0575 10.42 2.605 0 0 0
427 1 78.15 13.025 1.3025 0 0 0
428 1 78.15 13.025 3.9075 0 0 0
429 1 80.755 14.3275 0 0 0 0
430 1 80.755 11.7225 0 0 0 0
431 2 78.15 10.42 0 0 0 0
432 2 80.755 13.025 2.605 0 0 0
433 1 84.6625 10.42 2.605 0 0 0
434 1 87.2675 10.42 2.605 0 0 0
435 1 83.36 13.025 1.3025 0 0 0
436 1 83.36 13.025 3.9075 0 0 0
437 1 85.965 14.3275 0 0 0 0
438 1 85.965 11.7225 0 0 0 0
439 2 83.36 10.42 0 0 0 0
440 2 85.965 13.025 2.605 0 0 0
441 1 89.8725 10.42 2.605 0 0 0
442 1 92.4775 10.42 2.605 0 0 0
443 1 88.57 13.025 1.3025 0 0 0
444 1 88.57 13.025 3.9075 0 0 0
445 1 91.175 14.3275 0 0 0 0
446 1 91.175 11.7225 0 0 0 0
447 2 88.57 10.42 0 0 0 0
448 2 91.175 13.025 2.605 0 0 0
449 1 95.0825 10.42 2.605 0 0 0
450 1 97.6875 10.42 2.605 0 0 0
451 1 93.78 13.025 1.3025 0 0 0
452 1 93.78 13.025 3.9075 0 0 0
453 1 96.385 14.3275 0 0 0 0
454 1 96.385 11.7225 0 0 0 0
455 2 93.78 10.42 0 0 0 0
456 2 96.385 13.025 2.605 0 0 0
457 1 1.3025 15.63 2.605 0 0 0
458 1 3.9075 15.63 2.605 0 0 0
459 1 0 18.235 1.3025 0 0 0
460 1 0 18.235 3.9075 0 0 0
461 1 2.605 19.5375 0 0 0 0
462 1 2.605 16.9325 0 0 0 0
463 2 0 15.63 0 0 0 0
464 2 2.605 18.235 2.605 0 0 0
465 1 6.5125 15.63 2.605 0 0 0
466 1 9.1175 15.63 2.605 0 0 0
467 1 5.21 18.235 1.3025 0 0 0
468 1 5.21 18.235 3.9075 0 0 0
469 1 7.815 19.5375 0 0 0 0
470 1 7.815 16.9325 0 0 0 0
471 2 5.21 15.63 0 0 0 0
472 2 7.815 18.235 2.605 0 0 0
473 1 11.7225 15.63 2.605 0 0 0
474 1 14.3275 15.63 2.605 0 0 0
475 1 10.42 18.235 1.3025 0 0 0
476 1 10.42 18.235 3.9075 0 0 0
477 1 13.025 19.5375 0 0 0 0
478 1 13.025 16.9325 0 0 0 0
479 2 10.42 15.63 0 0 0 0
480 2 13.025 18.235 2.605 0 0 0
481 1 16.9325 15.63 2.605 0 0 0
482 1 19.5375 15.63 2.605 0 0 0
483 1 15.63 18.235 1.3025 0 0 0
484 1 15.63 18.235 3.9075 0 0 0
485 1 18.235 19.5375 0 0 0 0
486 1 18.235 16.9325 0 0 0 0
487 2 15.63 15.63 0 0 0 0
488 2 18.235 18.235 2.605 0 0 0
489 1 22.1425 15.63 2.605 0 0 0
490 1 24.7475 15.63 2.605 0 0 0
491 1 20.84 18.235 1.3025 0 0 0
492 1 20.84 18.235 3.9075 0 0 0
493 1 23.445 19.5375 0 0 0 0
494 1 23.445 16.9325 0 0 0 0
495 2 20.84 15.63 0 0 0 0
496 2 23.445 18.235 2.605 0 0 0
497 1 27.3525 15.63 2.605 0 0 0
498 1 29.9575 15.63 2.605 0 0 0
499 1 26.05 18.235 1.3025 0 0 0
500 1 26.05 18.235 3.9075 0 0 0
501 1 28.655 19.5375 0 0 0 0
502 1 28.655 16.9325 0 0 0 0
503 2 26.05 15.63 0 0 0 0
504 2 28.655 18.235 2.605 0 0 0
505 1 32.5625 15.63 2.605 0 0 0
506 1 35.1675 15.63 2.605 0 0 0
507 1 31.26 18.235 1.3025 0 0 0
508 1 31.26 18.235 3.9075 0 0 0
509 1 33.865 19.5375 0 0 0 0
510 1 33.865 16.9325 0 0 0 0
511 2 31.26 15.63 0 0 0 0
512 2 33.865 18.235 2.605 0 0 0
513 1 37.7725 15.63 2.605 0 0 0
514 1 40.3775 15.63 2.605 0 0 0
515 1 36.47 18.235 1.3025 0 0 0
516 1 36.47 18.235 3.9075 0 0 0
517 1 39.075 19.5375 0 0 0 0
518 1 39.075 16.9325 0 0 0 0
519 2 36.47 15.63 0 0 0 0
520 2 39.075 18.235 2.605 0 0 0
521 1 42.9825 15.63 2.605 0 0 0
522 1 45.5875 15.63 2.605 0 0 0
523 1 41.68 18.235 1.3025 0 0 0
524 1 41.68 18.235 3.9075 0 0 0
525 1 44.285 19.5375 0 0 0 0
526 1 44.285 16.9325 0 0 0 0
527 2 41.68 15.63 0 0 0 0
528 2 44.285 18.235 2.605 0 0 0
529 1 48.1925 15.63 2.605 0 0 0
530 1 50.7975 15.63 2.605 0 0 0
531 1 46.89 18.235 1.3025 0 0 0
532 1 46.89 18.235 3.9075 0 0 0
533 1 49.495 19.5375 0 0 0 0
534 1 49.495 16.9325 0 0 0 0
535 2 46.89 15.63 0 0 0 0
536 2 49.495 18.235 2.605 0 0 0
537 1 53.4025 15.63 2.605 0 0 0
538 1 56.0075 15.63 2.605 0 0 0
539 1 52.1 18.235 1.3025 0 0 0
540 1 52.1 18.235 3.9075 0 0 0
541 1 54.705 19.5375 0 0 0 0
542 1 54.705 16.9325 0 0 0 0
543 2 52.1 15.63 0 0 0 0
544 2 54.705 18.235 2.605 0 0 0
545 1 58.6125 15.63 2.605 0 0 0
546 1 61.2175 15.63 2.605 0 0 0
547 1 57.31 18.235 1.3025 0 0 0
548 1 57.31 18.235 3.9075 0 0 0
549 1 59.915 19.5375 0 0 0 0
550 1 59.915 16.9325 0 0 0 0
551 2 57.31 15.63 0 0 0 0
552 2 59.915 18.235 2.605 0 0 0
553 1 63.8225 15.63 2.605 0 0 0
554 1 66.4275 15.63 2.605 0 0 0
555 1 62.52 18.235 1.3025 0 0 0
556 1 62.52 18.235 3.9075 0 0 0
557 1 65.125 19.5375 0 0 0 0
558 1 65.125 16.9325 0 0 0 0
559 2 62.52 15.63 0 0 0 0
560 2 65.125 18.235 2.605 0 0 0
561 1 69.0325 15.63 2.605 0 0 0
562 1 71.6375 15.63 2.605 0 0 0
563 1 67.73 18.235 1.3025 0 0 0
564 1 67.73 18.235 3.9075 0 0 0
565 1 70.335 19.5375 0 0 0 0
566 1 70.335 16.9325 0 0 0 0
567 2 67.73 15.63 0 0 0 0
568 2 70.335 18.235 2.605 0 0 0
569 1 74.2425 15.63 2.605 0 0 0
570 1 76.8475 15.63 2.605 0 0 0
571 1 72.94 18.235 1.3025 0 0 0
572 1 72.94 18.235 3.9075 0 0 0
573 1 75.545 19.5375 0 0 0 0
574 1 75.545 16.9325 0 0 0 0
575 2 72.94 15.63 0 0 0 0
576 2 75.545 18.235 2.605 0 0 0
577 1 79.4525 15.63 2.605 0 0 0
578 1 82.0575 15.63 2.605 0 0 0
579 1 78.15 18.235 1.3025 0 0 0
580 1 78.15 18.235 3.9075 0 0 0
581 1 80.755 19.5375 0 0 0 0
582 1 80.755 16.9325 0 0 0 0
583 2 78.15 15.63 0 0 0 0
584 2 80.755 18.235 2.605 0 0 0
585 1 84.6625 15.63 2.605 0 0 0
586 1 87.2675 15.63 2.605 0 0 0
587 1 83.36 18.235 1.3025 0 0 0
588 1 83.36 18.235 3.9075 0 0 0
589 1 85.965 19.5375 0 0 0 0
590 1 85.965 16.9325 0 0 0 0
591 2 83.36 15.63 0 0 0 0
592 2 85.965 18.235 2.605 0 0 0
593 1 89.8725 15.63 2.605 0 0 0
594 1 92.4775 15.63 2.605 0 0 0
595 1 88.57 18.235 1.3025 0 0 0
596 1 88.57 18.235 3.9075 0 0 0
597 1 91.175 19.5375 0 0 0 0
598 1 91.175 16.9325 0 0 0 0
599 2 88.57 15.63 0 0 0 0
600 2 91.175 18.235 2.605 0 0 0
601 1 95.0825 15.63 2.605 0 0 0
602 1 97.6875 15.63 2.605 0 0 0
603 1 93.78 18.235 1.3025 0 0 0
604 1 93.78 18.235 3.9075 0 0 0
605 1 96.385 19.5375 0 0 0 0
606 1 96.385 16.9325 0 0 0 0
607 2 93.78 15.63 0 0 0 0
608 2 96.385 18.235 2.605 0 0 0
609 1 1.3025 20.84 2.605 0 0 0
610 1 3.9075 20.84 2.605 0 0 0
611 1 0 23.445 1.3025 0 0 0
612 1 0 23.445 3.9075 0 0 0
613 1 2.605 24.7475 0 0 0 0
614 1 2.605 22.1425 0 0 0 0
615 2 0 20.84 0 0 0 0
616 2 2.605 23.445 2.605 0 0 0
617 1 6.5125 20.84 2.605 0 0 0
618 1 9.1175 20.84 2.605 0 0 0
619 1 5.21 23.445 1.3025 0 0 0
620 1 5.21 23.445 3.9075 0 0 0
621 1 7.815 24.7475 0 0 0 0
622 1 7.815 22.1425 0 0 0 0
623 2 5.21 20.84 0 0 0 0
624 2 7.815 23.445 2.605 0 0 0
625 1 11.7225 20.84 2.605 0 0 0
626 1 14.3275 20.84 2.605 0 0 0
627 1 10.42 23.445 1.3025 0 0 0
628 1 10.42 23.445 3.9075 0 0 0
629 1 13.025 24.7475 0 0 0 0
630 1 13.025 22.1425 0 0 0 0
631 2 10.42 20.84 0 0 0 0
632 2 13.025 23.445 2.605 0 0 0
633 1 16.9325 20.84 2.605 0 0 0
634 1 19.5375 20.84 2.605 0 0 0
635 1 15.63 23.445 1.3025 0 0 0
636 1 15.63 23.445 3.9075 0 0 0
637 1 18.235 24.7475 0 0 0 0
638 1 18.235 22.1425 0 0 0 0
639 2 15.63 20.84 0 0 0 0
640 2 18.235 23.445 2.605 0 0 0
641 1 22.1425 20.84 2.605 0 0 0
642 1 24.7475 20.84 2.605 0 0 0
643 1 20.84 23.445 1.3025 0 0 0
644 1 20.84 23.445 3.9075 0 0 0
645 1 23.445 24.7475 0 0 0 0
646 1 23.445 22.1425 0 0 0 0
647 2 20.84 20.84 0 0 0 0
648 2 23.445 23.445 2.605 0 0 0
649 1 27.3525 20.84 2.605 0 0 0
650 1 29.9575 20.84 2.605 0 0 0
651 1 26.05 23.445 1.3025 0 0 0
652 1 26.05 23.445 3.9075 0 0 0
653 1 28.655 24.7475 0 0 0 0
654 1 28.655 22.1425 0 0 0 0
655 2 26.05 20.84 0 0 0 0
656 2 28.655 23.445 2.605 0 0 0
657 1 32.5625 20.84 2.605 0 0 0
658 1 35.1675 20.84 2.605 0 0 0
659 1 31.26 23.445 1.3025 0 0 0
660 1 31.26 23.445 3.9075 0 0 0
661 1 33.865 24.7475 0 0 0 0
662 1 33.865 22.1425 0 0 0 0
663 2 31.26 20.84 0 0 0 0
664 2 33.865 23.445 2.605 0 0 0
665 1 37.7725 20.84 2.605 0 0 0
666 1 40.3775 20.84 2.605 0 0 0
667 1 36.47 23.445 1.3025 0 0 0
668 1 36.47 23.445 3.9075 0 0 0
669 1 39.075 24.7475 0 0 0 0
670 1 39.075 22.1425 0 0 0 0
671 2 36.47 20.84 0 0 0 0
672 2 39.075 23.445 2.605 0 0 0
673 1 42.9825 20.84 2.605 0 0 0
674 1 45.5875 20.84 2.605 0 0 0
675 1 41.68 23.445 1.3025 0 0 0
676 1 41.68 23.445 3.9075 0 0 0
677 1 44.285 24.7475 0 0 0 0
678 1 44.285 22.1425 0 0 0 0
679 2 41.68 20.84 0 0 0 0
680 2 44.285 23.445 2.605 0 0 0
681 1 48.1925 20.84 2.605 0 0 0
682 1 50.7975 20.84 2.605 0 0 0
683 1 46.89 23.445 1.3025 0 0 0
684 1 46.89 23.445 3.9075 0 0 0
685 1 49.495 24.7475 0 0 0 0
686 1 49.495 22.1425 0 0 0 0
687 2 46.89 20.84 0 0 0 0
688 2 49.495 23.445 2.605 0 0 0
689 1 53.4025 20.84 2.605 0 0 0
690 1 56.0075 20.84 2.605 0 0 0
691 1 52.1 23.445 1.3025 0 0 0
692 1 52.1 23.445 3.9075 0 0 0
693 1 54.705 24.7475 0 0 0 0
694 1 54.705 22.1425 0 0 0 0
695 2 52.1 20.84 0 0 0 0
696 2 54.705 23.445 2.605 0 0 0
697 1 58.6125 20.84 2.605 0 0 0
698 1 61.2175 20.84 2.605 0 0 0
699 1 57.31 23.445 1.3025 0 0 0
700 1 57.31 23.445 3.9075 0 0 0
701 1 59.915 24.7475 0 0 0 0
702 1 59.915 22.1425 0 0 0 0
703 2 57.31 20.84 0 0 0 0
704 2 59.915 23.445 2.605 0 0 0
705 1 63.8225 20.84 2.605 0 0 0
706 1 66.4275 20.84 2.605 0 0 0
707 1 62.52 23.445 1.3025 0 0 0
708 1 62.52 23.445 3.9075 0 0 0
709 1 65.125 24.7475 0 0 0 0
710 1 65.125 22.1425 0 0 0 0
711 2 62.52 20.84 0 0 0 0
712 2 65.125 23.445 2.605 0 0 0
713 1 69.0325 20.84 2.605 0 0 0
714 1 71.6375 20.84 2.605 0 0 0
715 1 67.73 23.445 1.3025 0 0 0
716 1 67.73 23.445 3.9075 0 0 0
717 1 70.335 24.7475 0 0 0 0
718 1 70.335 22.1425 0 0 0 0
719 2 67.73 20.84 0 0 0 0
720 2 70.335 23.445 2.605 0 0 0
721 1 74.2425 20.84 2.605 0 0 0
722 1 76.8475 20.84 2.605 0 0 0
723 1 72.94 23.445 1.3025 0 0 0
724 1 72.94 23.445 3.9075 0 0 0
725 1 75.545 24.7475 0 0 0 0
726 1 75.545 22.1425 0 0 0 0
727 2 72.94 20.84 0 0 0 0
728 2 75.545 23.445 2.605 0 0 0
729 1 79.4525 20.84 2.605 0 0 0
730 1 82.0575 20.84 2.605 0 0 0
731 1 78.15 23.445 1.3025 0 0 0
732 1 78.15 23.445 3.9075 0 0 0
733 1 80.755 24.7475 0 0 0 0
734 1 80.755 22.1425 0 0 0 0
735 2 78.15 20.84 0 0 0 0
736 2 80.755 23.445 2.605 0 0 0
737 1 84.6625 20.84 2.605 0 0 0
738 1 87.2675 20.84 2.605 0 0 0
739 1 83.36 23.445 1.3025 0 0 0
740 1 83.36 23.445 3.9075 0 0 0
741 1 85.965 24.7475 0 0 0 0
742 1 85.965 22.1425 0 0 0 0
743 2 83.36 20.84 0 0 0 0
744 2 85.965 23.445 2.605 0 0 0
745 1 89.8725 20.84 2.605 0 0 0
746 1 92.4775 20.84 2.605 0 0 0
747 1 88.57 23.445 1.3025 0 0 0
748 1 88.57 23.445 3.9075 0 0 0
749 1 91.175 24.7475 0 0 0 0
750 1 91.175 22.1425 0 0 0 0
751 2 88.57 20.84 0 0 0 0
752 2 91.175 23.445 2.605 0 0 0
753 1 95.0825 20.84 2.605 0 0 0
754 1 97.6875 20.84 2.605 0 0 0
755 1 93.78 23.445 1.3025 0 0 0
756 1 93.78 23.445 3.9075 0 0 0
757 1 96.385 24.7475 0 0 0 0
758 1 96.385 22.1425 0 0 0 0
759 2 93.78 20.84 0 0 0 0
760 2 96.385 23.445 2.605 0 0 0
761 1 1.3025 26.05 2.605 0 0 0
762 1 3.9075 26.05 2.605 0 0 0
763 1 0 28.655 1.3025 0 0 0
764 1 0 28.655 3.9075 0 0 0
765 1 2.605 29.9575 0 0 0 0
766 1 2.605 27.3525 0 0 0 0
767 2 0 26.05 0 0 0 0
768 2 2.605 28.655 2.605 0 0 0
769 1 6.5125 26.05 2.605 0 0 0
770 1 9.1175 26.05 2.605 0 0 0
771 1 5.21 28.655 1.3025 0 0 0
772 1 5.21 28.655 3.9075 0 0 0
773 1 7.815 29.9575 0 0 0 0
774 1 7.815 27.3525 0 0 0 0
775 2 5.21 26.05 0 0 0 0
776 2 7.815 28.655 2.605 0 0 0
777 1 11.7225 26.05 2.605 0 0 0
778 1 14.3275 26.05 2.605 0 0 0
779 1 10.42 28.655 1.3025 0 0 0
780 1 10.42 28.655 3.9075 0 0 0
781 1 13.025 29.9575 0 0 0 0
782 1 13.025 27.3525 0 0 0 0
783 2 10.42 26.05 0 0 0 0
784 2 13.025 28.655 2.605 0 0 0
785 1 16.9325 26.05 2.605 0 0 0
786 1 19.5375 26.05 2.605 0 0 0
787 1 15.63 28.655 1.3025 0 0 0
788 1 15.63 28.655 3.9075 0 0 0
789 1 18.235 29.9575 0 0 0 0
790 1 18.235 27.3525 0 0 0 0
791 2 15.63 26.05 0 0 0 0
792 2 18.235 28.655 2.605 0 0 0
793 1 22.1425 26.05 2.605 0 0 0
794 1 24.7475 26.05 2.605 0 0 0
795 1 20.84 28.655 1.3025 0 0 0
796 1 20.84 28.655 3.9075 0 0 0
797 1 23.445 29.9575 0 0 0 0
798 1 23.445 27.3525 0 0 0 0
799 2 20.84 26.05 0 0 0 0
800 2 23.445 28.655 2.605 0 0 0
801 1 27.3525 26.05 2.605 0 0 0
802 1 29.9575 26.05 2.605 0 0 0
803 1 26.05 28.655 1.3025 0 0 0
804 1 26.05 28.655 3.9075 0 0 0
805 1 28.655 29.9575 0 0 0 0
806 1 28.655 27.3525 0 0 0 0
807 2 26.05 26.05 0 0 0 0
808 2 28.655 28.655 2.605 0 0 0
809 1 32.5625 26.05 2.605 0 0 0
810 1 35.1675 26.05 2.605 0 0 0
811 1 31.26 28.655 1.3025 0 0 0
812 1 31.26 28.655 3.9075 0 0 0
813 1 33.865 29.9575 0 0 0 0
814 1 33.865 27.3525 0 0 0 0
815 2 31.26 26.05 0 0 0 0
816 2 33.865 28.655 2.605 0 0 0
817 1 37.7725 26.05 2.605 0 0 0
818 1 40.3775 26.05 2.605 0 0 0
819 1 36.47 28.655 1.3025 0 0 0
820 1 36.47 28.655 3.9075 0 0 0
821 1 39.075 29.9575 0 0 0 0
822 1 39.075 27.3525 0 0 0 0
823 2 36.47 26.05 0 0 0 0
824 2 39.075 28.655 2.605 0 0 0
825 1 42.9825 26.05 2.605 0 0 0
826 1 45.5875 26.05 2.605 0 0 0
827 1 41.68 28.655 1.3025 0 0 0
828 1 41.68 28.655 3.9075 0 0 0
829 1 44.285 29.9575 0 0 0 0
830 1 44.285 27.3525 0 0 0 0
831 2 41.68 26.05 0 0 0 0
832 2 44.285 28.655 2.605 0 0 0
833 1 48.1925 26.05 2.605 0 0 0
834 1 50.7975 26.05 2.605 0 0 0
835 1 46.89 28.655 1.3025 0 0 0
836 1 46.89 28.655 3.9075 0 0 0
837 1 49.495 29.9575 0 0 0 0
838 1 49.495 27.3525 0 0 0 0
839 2 46.89 26.05 0 0 0 0
840 2 49.495 28.655 2.605 0 0 0
841 1 53.4025 26.05 2.605 0 0 0
842 1 56.0075 26.05 2.605 0 0 0
843 1 52.1 28.655 1.3025 0 0 0
844 1 52.1 28.655 3.9075 0 0 0
845 1 54.705 29.9575 0 0 0 0
846 1 54.705 27.3525 0 0 0 0
847 2 52.1 26.05 0 0 0 0
848 2 54.705 28.655 2.605 0 0 0
849 1 58.6125 26.05 2.605 0 0 0
850 1 61.2175 26.05 2.605 0 0 0
851 1 57.31 28.655 1.3025 0 0 0
852 1 57.31 28.655 3.9075 0 0 0
853 1 59.915 29.9575 0 0 0 0
854 1 59.915 27.3525 0 0 0 0
855 2 57.31 26.05 0 0 0 0
856 2 59.915 28.655 2.605 0 0 0
857 1 63.8225 26.05 2.605 0 0 0
858 1 66.4275 26.05 2.605 0 0 0
859 1 62.52 28.655 1.3025 0 0 0
860 1 62.52 28.655 3.9075 0 0 0
861 1 65.125 29.9575 0 0 0 0
862 1 65.125 27.3525 0 0 0 0
863 2 62.52 26.05 0 0 0 0
864 2 65.125 28.655 2.605 0 0 0
865 1 69.0325 26.05 2.605 0 0 0
866 1 71.6375 26.05 2.605 0 0 0
867 1 67.73 28.655 1.3025 0 0 0
868 1 67.73 28.655 3.9075 0 0 0
869 1 70.335 29.9575 0 0 0 0
870 1 70.335 27.3525 0 0 0 0
871 2 67.73 26.05 0 0 0 0
872 2 70.335 28.655 2.605 0 0 0
873 1 74.2425 26.05 2.605 0 0 0
874 1 76.8475 26.05 2.605 0 0 0
875 1 72.94 28.655 1.3025 0 0 0
876 1 72.94 28.655 3.9075 0 0 0
877 1 75.545 29.9575 0 0 0 0
878 1 75.545 27.3525 0 0 0 0
879 2 72.94 26.05 0 0 0 0
880 2 75.545 28.655 2.605 0 0 0
881 1 79.4525 26.05 2.605 0 0 0
882 1 82.0575 26.05 2.605 0 0 0
883 1 78.15 28.655 1.3025 0 0 0
884 1 78.15 28.655 3.9075 0 0 0
885 1 80.755 29.9575 0 0 0 0
886 1 80.755 27.3525 0 0 0 0
887 2 78.15 26.05 0 0 0 0
888 2 80.755 28.655 2.605 0 0 0
889 1 84.6625 26.05 2.605 0 0 0
890 1 87.2675 26.05 2.605 0 0 0
891 1 83.36 28.655 1.3025 0 0 0
892 1 83.36 28.655 3.9075 0 0 0
893 1 85.965 29.9575 0 0 0 0
894 1 85.965 27.3525 0 0 0 0
895 2 83.36 26.05 0 0 0 0
896 2 85.965 28.655 2.605 0 0 0
897 1 89.8725 26.05 2.605 0 0 0
898 1 92.4775 26.05 2.605 0 0 0
899 1 88.57 28.655 1.3025 0 0 0
900 1 88.57 28.655 3.9075 0 0 0
901 1 91.175 29.9575 0 0 0 0
902 1 91.175 27.3525 0 0 0 0
903 2 88.57 26.05 0 0 0 0
904 2 91.175 28.655 2.605 0 0 0
905 1 95.0825 26.05 2.605 0 0 0
906 1 97.6875 26.05 2.605 0 0 0
907 1 93.78 28.655 1.3025 0 0 0
908 1 93.78 28.655 3.9075 0 0 0
909 1 96.385 29.9575 0 0 0 0
910 1 96.385 27.3525 0 0 0 0
911 2 93.78 26.05 0 0 0 0
912 2 96.385 28.655 2.605 0 0 0
913 1 1.3025 31.26 2.605 0 0 0
914 1 3.9075 31.26 2.605 0 0 0
915 1 0 33.865 1.3025 0 0 0
916 1 0 33.865 3.9075 0 0 0
917 1 2.605 35.1675 0 0 0 0
918 1 2.605 32.5625 0 0 0 0
919 2 0 31.26 0 0 0 0
920 2 2.605 33.865 2.605 0 0 0
921 1 6.5125 31.26 2.605 0 0 0
922 1 9.1175 31.26 2.605 0 0 0
923 1 5.21 33.865 1.3025 0 0 0
924 1 5.21 33.865 3.9075 0 0 0
925 1 7.815 35.1675 0 0 0 0
926 1 7.815 32.5625 0 0 0 0
927 2 5.21 31.26 0 0 0 0
928 2 7.815 33.865 2.605 0 0 0
929 1 11.7225 31.26 2.605 0 0 0
930 1 14.3275 31.26 2.605 0 0 0
931 1 10.42 33.865 1.3025 0 0 0
932 1 10.42 33.865 3.9075 0 0 0
933 1 13.025 35.1675 0 0 0 0
934 1 13.025 32.5625 0 0 0 0
935 2 10.42 31.26 0 0 0 0
936 2 13.025 33.865 2.605 0 0 0
937 1 16.9325 31.26 2.605 0 0 0
938 1 19.5375 31.26 2.605 0 0 0
939 1 15.63 33.865 1.3025 0 0 0
940 1 15.63 33.865 3.9075 0 0 0
941 1 18.235 35.1675 0 0 0 0
942 1 18.235 32.5625 0 0 0 0
943 2 15.63 31.26 0 0 0 0
944 2 18.235 33.865 2.605 0 0 0
945 1 22.1425 31.26 2.605 0 0 0
946 1 24.7475 31.26 2.605 0 0 0
947 1 20.84 33.865 1.3025 0 0 0
948 1 20.84 33.865 3.9075 0 0 0
949 1 23.445 35.1675 0 0 0 0
950 1 23.445 32.5625 0 0 0 0
951 2 20.84 31.26 0 0 0 0
952 2 23.445 33.865 2.605 0 0 0
953 1 27.3525 31.26 2.605 0 0 0
954 1 29.9575 31.26 2.605 0 0 0
955 1 26.05 33.865 1.3025 0 0 0
956 1 26.05 33.865 3.9075 0 0 0
957 1 28.655 35.1675 0 0 0 0
958 1 28.655 32.5625 0 0 0 0
959 2 26.05 31.26 0 0 0 0
960 2 28.655 33.865 2.605 0 0 0
961 1 32.5625 31.26 2.605 0 0 0
962 1 35.1675 31.26 2.605 0 0 0
963 1 31.26 33.865 1.3025 0 0 0
964 1 31.26 33.865 3.9075 0 0 0
965 1 33.865 35.1675 0 0 0 0
966 1 33.865 32.5625 0 0 0 0
967 2 31.26 31.26 0 0 0 0
968 2 33.865 33.865 2.605 0 0 0
969 1 37.7725 31.26 2.605 0 0 0
970 1 40.3775 31.26 2.605 0 0 0
971 1 36.47 33.865 1.3025 0 0 0
972 1 36.47 33.865 3.9075 0 0 0
973 1 39.075 35.1675 0 0 0 0
974 1 39.075 32.5625 0 0 0 0
975 2 36.47 31.26 0 0 0 0
976 2 39.075 33.865 2.605 0 0 0
977 1 42.9825 31.26 2.605 0 0 0
978 1 45.5875 31.26 2.605 0 0 0
979 1 41.68 33.865 1.3025 0 0 0
980 1 41.68 33.865 3.9075 0 0 0
981 1 44.285 35.1675 0 0 0 0
982 1 44.285 32.5625 0 0 0 0
983 2 41.68 31.26 0 0 0 0
984 2 44.285 33.865 2.605 0 0 0
985 1 48.1925 31.26 2.605 0 0 0
986 1 50.7975 31.26 2.605 0 0 0
987 1 46.89 33.865 1.3025 0 0 0
988 1 46.89 33.865 3.9075 0 0 0
989 1 49.495 35.1675 0 0 0 0
990 1 49.495 32.5625 0 0 0 0
991 2 46.89 31.26 0 0 0 0
992 2 49.495 33.865 2.605 0 0 0
993 1 53.4025 31.26 2.605 0 0 0
994 1 56.0075 31.26 2.605 0 0 0
995 1 52.1 33.865 1.3025 0 0 0
996 1 52.1 33.865 3.9075 0 0 0
997 1 54.705 35.1675 0 0 0 0
998 1 54.705 32.5625 0 0 0 0
999 2 52.1 31.26 0 0 0 0
1000 2 54.705 33.865 2.605 0 0 0
1001 1 58.6125 31.26 2.605 0 0 0